GAMESS temporary binary files will be written to /global/cscratch1/sd/buupq/gms-2019-03-06_043000
GAMESS supplementary output files will be written to /global/u2/b/buupq/efmoBenchmark/m32/gms-2019-03-06_043000
----- GAMESS execution script 'rungms' -----
This job is running on host nid08292
under operating system Linux at Wed Mar 6 04:30:00 PST 2019
Slurm has assigned the following compute nodes to this run:
nid0[8292-8323]
Available scratch disk space (Kbyte units) at beginning of the job is
Filesystem                                                 1K-blocks           Used      Available Use% Mounted on
10.100.104.4@o2ib4000:10.101.104.5@o2ib4001:/snx11168 29763608416864 15112682827488 14324189751116  52% /global/cscratch1
GAMESS temporary binary files will be written to /global/cscratch1/sd/buupq/gms-2019-03-06_043000
GAMESS supplementary output files will be written to /global/u2/b/buupq/efmoBenchmark/m32/gms-2019-03-06_043000
Copying input file n32_m32.inp to your run's scratch directory...
cp n32_m32.inp /global/cscratch1/sd/buupq/gms-2019-03-06_043000/n32_m32.F05
unset echo
This is a GDDI run, keeping various output files on local disks
setenv OUTPUT /global/cscratch1/sd/buupq/gms-2019-03-06_043000/n32_m32.F06
setenv PUNCH /global/cscratch1/sd/buupq/gms-2019-03-06_043000/n32_m32.F07
unset echo
setenv DDI_DS_PER_NODE 1
chdir /global/cscratch1/sd/buupq/gms-2019-03-06_043000/n32_m32
setenv DDI_LOGICAL_NODE_SIZE 1
setenv OMP_NUM_THREADS 68
setenv OMP_STACKSIZE 1000MB
srun -n 64 -c 2 --cpu_bind=none /global/homes/b/buupq/EFMOrimp2/gamess.00.x n32_m32
          ******************************************************
          *         GAMESS VERSION = 30 SEP 2018 (R3)         *
          *             FROM IOWA STATE UNIVERSITY             *
          * M.W.SCHMIDT, K.K.BALDRIDGE, J.A.BOATZ, S.T.ELBERT, *
          *   M.S.GORDON, J.H.JENSEN, S.KOSEKI, N.MATSUNAGA,   *
          *          K.A.NGUYEN, S.J.SU, T.L.WINDUS,           *
          *       TOGETHER WITH M.DUPUIS, J.A.MONTGOMERY       *
          *         J.COMPUT.CHEM.  14, 1347-1363(1993)        *
          **************** 64 BIT LINUX VERSION ****************

  SINCE 1993, STUDENTS AND POSTDOCS WORKING AT IOWA STATE UNIVERSITY
  AND ALSO IN THEIR VARIOUS JOBS AFTER LEAVING ISU HAVE MADE IMPORTANT
  CONTRIBUTIONS TO THE CODE:
     IVANA ADAMOVIC, CHRISTINE AIKENS, YURI ALEXEEV, POOJA ARORA,
     ANDREY ASADCHEV, ROB BELL, PRADIPTA BANDYOPADHYAY, JONATHAN BENTZ,
     BRETT BODE, KURT BRORSEN, CALEB CARLIN, GALINA CHABAN, WEI CHEN,
     CHEOL HO CHOI, PAUL DAY, ALBERT DEFUSCO, NUWAN DESILVA, TIM DUDLEY,
     DMITRI FEDOROV, ALEX FINDLATER, GRAHAM FLETCHER, MARK FREITAG,
     KURT GLAESEMANN, ANASTASIA GUNINA,
     DAN KEMP, GRANT MERRILL, NORIYUKI MINEZAWA, JONATHAN MULLIN,
     TAKESHI NAGATA, SEAN NEDD, HEATHER NETZLOFF, BOSILJKA NJEGIC, RYAN OLSON,
     MIKE PAK, BUU PHAM,
     SPENCER PRUITT, LUKE ROSKOP, JIM SHOEMAKER, LYUDMILA SLIPCHENKO,
     TONY SMITH, SAROM SOK LEANG, JIE SONG, TETSUYA TAKETSUGU, SIMON WEBB,
     PENG XU, SOOHAENG YOO, FEDERICO ZAHARIEV

  ADDITIONAL CODE HAS BEEN PROVIDED BY COLLABORATORS IN OTHER GROUPS:
     IOWA STATE UNIVERSITY:
          JOE IVANIC, AARON WEST, LAIMUTIS BYTAUTAS, KLAUS RUEDENBERG
     UNIVERSITY OF TOKYO: KIMIHIKO HIRAO, TAKAHITO NAKAJIMA,
          TAKAO TSUNEDA, MUNEAKI KAMIYA, SUSUMU YANAGISAWA,
          KIYOSHI YAGI, MAHITO CHIBA, SEIKEN TOKURA, NAOAKI KAWAKAMI
     UNIVERSITY OF AARHUS: FRANK JENSEN
     UNIVERSITY OF IOWA: VISVALDAS KAIRYS, HUI LI
     NATIONAL INST. OF STANDARDS AND TECHNOLOGY: WALT STEVENS, DAVID GARMER
     UNIVERSITY OF PISA: BENEDETTA MENNUCCI, JACOPO TOMASI
     UNIVERSITY OF MEMPHIS: HENRY KURTZ, PRAKASHAN KORAMBATH
     UNIVERSITY OF ALBERTA: TOBY ZENG, MARIUSZ KLOBUKOWSKI
     UNIVERSITY OF NEW ENGLAND: MARK SPACKMAN
     MIE UNIVERSITY: HIROAKI UMEDA
     NAT. INST. OF ADVANCED INDUSTRIAL SCIENCE AND TECHNOLOGY: KAZUO KITAURA
     MICHIGAN STATE UNIVERSITY:
          KAROL KOWALSKI, MARTA WLOCH, JEFFREY GOUR, JESSE LUTZ,
          WEI LI, JUN SHEN, J. EMILIANO DEUSTUA, PIOTR PIECUCH
     UNIVERSITY OF MINNESOTA:
          YINAN SHU
     UNIVERSITY OF SILESIA: MONIKA MUSIAL, STANISLAW KUCHARSKI
     FACULTES UNIVERSITAIRES NOTRE-DAME DE LA PAIX:
          OLIVIER QUINET, BENOIT CHAMPAGNE
     UNIVERSITY OF CALIFORNIA - SANTA BARBARA: BERNARD KIRTMAN
     INSTITUTE FOR MOLECULAR SCIENCE:
          KAZUYA ISHIMURA, MICHIO KATOUDA, AND SHIGERU NAGASE
     UNIVERSITY OF NOTRE DAME: ANNA POMOGAEVA, DAN CHIPMAN
     KYUSHU UNIVERSITY:
          HARUYUKI NAKANO,
          FENG LONG GU, JACEK KORCHOWIEC, MARCIN MAKOWSKI, AND YURIKO AOKI,
          HIROTOSHI MORI AND EISAKU MIYOSHI
     PENNSYLVANIA STATE UNIVERSITY:
          TZVETELIN IORDANOV, CHET SWALINA, JONATHAN SKONE,
          SHARON HAMMES-SCHIFFER
     WASEDA UNIVERSITY:
          MASATO KOBAYASHI, TOMOKO AKAMA, TSUGUKI TOUMA,
          TAKESHI YOSHIKAWA, YASUHIRO IKABATA, JUNJI SEINO,
          YUYA NAKAJIMA, HIROMI NAKAI
     NANJING UNIVERSITY: SHUHUA LI
     UNIVERSITY OF NEBRASKA:
          PEIFENG SU, DEJUN SI, NANDUN THELLAMUREGE, YALI WANG, HUI LI
     UNIVERSITY OF ZURICH: ROBERTO PEVERATI, KIM BALDRIDGE
     N. COPERNICUS UNIVERSITY AND JACKSON STATE UNIVERSITY:
          MARIA BARYSZ
     UNIVERSITY OF COPENHAGEN: Jimmy Kromann, CASPER STEINMANN
     TOKYO INSTITUTE OF TECHNOLOGY: HIROYA NAKATA
     NAGOYA UNIVERSITY: YOSHIO NISHIMOTO, STEPHAN IRLE
     MOSCOW STATE UNIVERSITY: VLADIMIR MIRONOV


 PARALLEL VERSION RUNNING ON       32 PROCESSORS IN       32 NODES.

 EXECUTION OF GAMESS BEGUN Wed Mar  6 04:30:10 2019

            ECHO OF THE FIRST FEW INPUT CARDS -
 INPUT CARD> $MP2 code=omprimp2 $END                                                        
 INPUT CARD> $AUXBAS cabnam=ccd $END                                                        
 INPUT CARD> $INTGRL intomp=1 $END                                                          
 INPUT CARD>                                                                                
 INPUT CARD> $CONTRL runtyp=energy mplevl=2                                                 
 INPUT CARD>         local=ruednbrg maxit=100 $END                                          
 INPUT CARD> $SYSTEM mwords=11000 mem10=500000000                                           
 INPUT CARD>         timlim=100000000 memddi=10000 $END                                     
 INPUT CARD> $SCF dirscf=.true. npunch=0 $END                                               
 INPUT CARD> $LOCAL CVGLOC=1.0E-6 FCORE=.TRUE. $END                                         
 INPUT CARD> $GDDI ngroup=32 $END                                                           
 INPUT CARD> $FMOPRP                                                                        
 INPUT CARD>    NGRFMO(1)= 32, 32, 0, 0, 0,   0, 0, 0, 0, 0                                 
 INPUT CARD>    nprint=0                                                                    
 INPUT CARD> $END                                                                           
 INPUT CARD> $FMO                                                                           
 INPUT CARD>     nbody=2                                                                    
 INPUT CARD>     iefmo=1                                                                    
 INPUT CARD>     resdim=0.5                                                                 
 INPUT CARD>! uncomment the line below for post-HF runs                                     
 INPUT CARD>     rcorsd=0.5                                                                 
 INPUT CARD>     modefm(1)=0, 0, 0, 1, 1                                                    
 INPUT CARD>     RAFO(1)=.1, 1, 1                                                           
 INPUT CARD>     MAXCAO=9                                                                   
 INPUT CARD>     MAXBND=201                                                                 
 INPUT CARD>     NLAYER=1                                                                   
 INPUT CARD>     NFRAG=32                                                                   
 INPUT CARD>     ICHARG(1)=                                                                 
 INPUT CARD>          0, 0, 0, 0, 0, 0, 0, 0, 0, 0,                                         
 INPUT CARD>          0, 0, 0, 0, 0, 0, 0, 0, 0, 0,                                         
 INPUT CARD>          0, 0, 0, 0, 0, 0, 0, 0, 0, 0,                                         
 INPUT CARD>          0, 0                                                                  
 INPUT CARD>     FRGNAM(1)=                                                                 
 INPUT CARD>            Msn1, FnGrp1,   Msn2,   Msn3,   Msn4,                               
 INPUT CARD>            Msn5,   Msn6,   Msn7,   Msn8,   Msn9,                               
 INPUT CARD>           Msn10,  Msn11,  Msn12, FnGrp2,  Msn13,                               
 INPUT CARD>           Msn14,  Msn15, FnGrp3,  Msn16, FnGrp4,                               
 INPUT CARD>           Msn17,  Msn18,  Msn19,  Msn20,  Msn21,                               
 INPUT CARD>           Msn22,  Msn23,  Msn24,  Msn25,  Msn26,                               
 INPUT CARD>           Msn27,  Msn28                                                        
 INPUT CARD>      INDAT(1)=0                                                                
 INPUT CARD>               283   286   328   331   334   372                                
 INPUT CARD>               376   380   411   414   417   440                                
 INPUT CARD>               443   446   469   471   474   500                                
 INPUT CARD>               503   506   540   543   980   996                                
 INPUT CARD>              1016  1027  1040  1049  1065  1300                                
 INPUT CARD>              1301  1304  1305  1309  1314  1315                                
 INPUT CARD>              1319  1320  1324  1325  1329  1333                                
 INPUT CARD>              1336  1337  1340  1341  1344  1345                                
 INPUT CARD>              1348  1437  1546  1679  1680  1682                                
DDI running over MPI found environment variable DDI_LOGICAL_NODE_SIZE, so
physical nodes will be partitioned into logical nodes containing 1 core(s).


 -------------------------------------------------------------
 GROUP DDI, PROGRAMMED BY: RYAN M. OLSON AND DMITRI G. FEDOROV
        FEDOROV ET AL., J. COMPUT. CHEM., 25 (2004) 872.
 -------------------------------------------------------------

 -------------------------------------------------------
 GDDI: INITIALIZATION COMPLETED FOR GROUP     1 OF    32
 WITH     1 PROCESSES BALTYP=DLB   global rank=        0
 -------------------------------------------------------

 ********** WORDS OF MEMORY AVAILABLE
 Allocated             500000000  for F10


     RUN TITLE
     ---------
  EFMO 32 fragment MSN single pore model                                         

 THE POINT GROUP OF THE MOLECULE IS C1      
 THE ORDER OF THE PRINCIPAL AXIS IS     0

 ATOM   ATOMIC CHARGE
 O.1-1       8.0
 C.1-1       6.0
 SI.1-1     14.0
 N.1-1       7.0
 H.1-1       1.0

     ATOMIC BASIS SET LIBRARY
     ----------------
 THE CONTRACTED PRIMITIVE FUNCTIONS HAVE BEEN UNNORMALIZED
 THE CONTRACTED BASIS FUNCTIONS ARE NOW NORMALIZED TO UNITY

  SHELL TYPE  PRIMITIVE        EXPONENT          CONTRACTION COEFFICIENT(S)

 O.1-1     

      1   S       1          5484.6716600    0.001831074430
      1   S       2           825.2349460    0.013950172200
      1   S       3           188.0469580    0.068445078098
      1   S       4            52.9645000    0.232714335992
      1   S       5            16.8975704    0.470192897984
      1   S       6             5.7996353    0.358520852987

      2   L       7            15.5396162   -0.110777549525    0.070874268231
      2   L       8             3.5999336   -0.148026262701    0.339752839147
      2   L       9             1.0137618    1.130767015354    0.727158577316

      3   L      10             0.2700058    1.000000000000    1.000000000000

 C.1-1     

      4   S      11          3047.5248800    0.001834737132
      4   S      12           457.3695180    0.014037322813
      4   S      13           103.9486850    0.068842622264
      4   S      14            29.2101553    0.232184443216
      4   S      15             9.2866630    0.467941348435
      4   S      16             3.1639270    0.362311985337

      5   L      17             7.8682723   -0.119332419775    0.068999066591
      5   L      18             1.8812885   -0.160854151696    0.316423960957
      5   L      19             0.5442493    1.143456437840    0.744308290898

      6   L      20             0.1687145    1.000000000000    1.000000000000

 SI.1-1    

      7   S      21         16192.1000000    0.001949239405
      7   S      22          2436.0900000    0.014855895466
      7   S      23           556.0010000    0.072568877851
      7   S      24           156.8130000    0.245654925022
      7   S      25            50.1692000    0.486059851646
      7   S      26            17.0300000    0.325719900585

      8   L      27           293.3500000   -0.002829912441    0.004433341604
      8   L      28            70.1173000   -0.036073731114    0.032440211739
      8   L      29            22.4301000   -0.116808100749    0.133719048387
      8   L      30             8.1942500    0.093576880711    0.326780118247
      8   L      31             3.1476800    0.601705518979    0.451139163247
      8   L      32             1.2151500    0.422072364043    0.264105095568

      9   L      33             1.6537000   -0.240599186106   -0.015177406538
      9   L      34             0.5407600    0.073795050368    0.275139118516
      9   L      35             0.2044060    1.040936478740    0.783008337279

     10   L      36             0.0723837    1.000000000000    1.000000000000

 N.1-1     

     11   S      37          4173.5114600    0.001834772160
     11   S      38           627.4579110    0.013994627002
     11   S      39           142.9020930    0.068586551812
     11   S      40            40.2343293    0.232240873040
     11   S      41            12.8202129    0.469069948082
     11   S      42             4.3904370    0.360455199063

     12   L      43            11.6263619   -0.114961181702    0.067579743878
     12   L      44             2.7162798   -0.169117478561    0.323907295893
     12   L      45             0.7722184    1.145851947027    0.740895139755

     13   L      46             0.2120315    1.000000000000    1.000000000000

 H.1-1     

     14   S      47            18.7311370    0.033494604338
     14   S      48             2.8253944    0.234726953484
     14   S      49             0.6401217    0.813757326146

     15   S      50             0.1612778    1.000000000000

 TOTAL NUMBER OF BASIS SET SHELLS             =   15
 NUMBER OF CARTESIAN GAUSSIAN BASIS FUNCTIONS =   42

     $CONTRL OPTIONS
     ---------------
 SCFTYP=RHF          RUNTYP=ENERGY       EXETYP=RUN     
 MPLEVL=       2     CITYP =NONE         CCTYP =NONE         VBTYP =NONE    
 DFTTYP=NONE         TDDFT =NONE    
 MULT  =       1     ICHARG=       0     NZVAR =       0     COORD =UNIQUE  
 PP    =NONE         RELWFN=NONE         LOCAL =RUEDNBRG     NUMGRD=       F
 ISPHER=      -1     NOSYM =       0     MAXIT =     100     UNITS =ANGS    
 PLTORB=       F     MOLPLT=       F     AIMPAC=       F     FRIEND=        
 NPRINT=       7     IREST =       0     GEOM  =INPUT   
 NORMF =       0     NORMP =       0     ITOL  =      24     ICUT  =      12
 INTTYP=BEST         GRDTYP=BEST         QMTTOL= 1.0E-06

     $SYSTEM OPTIONS
     ---------------
  REPLICATED MEMORY= 11000000000 WORDS (ON EVERY NODE).
 DISTRIBUTED MEMDDI=       10000 MILLION WORDS IN AGGREGATE,
 MEMDDI DISTRIBUTED OVER   1 PROCESSORS IS   312500000 WORDS/PROCESSOR.
 TOTAL MEMORY REQUESTED ON EACH PROCESSOR= 11312500000 WORDS.
 TIMLIM=   100000000.00 MINUTES, OR   69444.4 DAYS.
 PARALL= F  BALTYP=  DLB     KDIAG=    0  COREFL= F
 MXSEQ2=     300 MXSEQ3=     150  mem10= 500000000

          ----------------
          PROPERTIES INPUT
          ----------------

     MOMENTS            FIELD           POTENTIAL          DENSITY
 IEMOM =       1   IEFLD =       0   IEPOT =       0   IEDEN =       0
 WHERE =COMASS     WHERE =NUCLEI     WHERE =NUCLEI     WHERE =NUCLEI  
 OUTPUT=BOTH       OUTPUT=BOTH       OUTPUT=NONE       OUTPUT=BOTH    
 IEMINT=       0   IEFINT=       0                     IEDINT=       0
                                                       MORB  =       0
          EXTRAPOLATION IN EFFECT
          SOSCF IN EFFECT
 ORBITAL PRINTING OPTION: NPREO=     1 32767     2     1

     -------------------------------
     INTEGRAL TRANSFORMATION OPTIONS
     -------------------------------
     NWORD  =            0
     CUTOFF = 1.0E-10     MPTRAN =       0
     DIRTRF =       T     AOINTS =DUP     

          -----------------------------
          LOCALIZATION INPUT PARAMETERS
          -----------------------------
           LOCAL=RUEDNBRG      NOUTA=       8
          PRTLOC=       F      NOUTB=       0
          MAXLOC=    1000     CVGLOC=1.00E-06
           FCORE=       T     SYMLOC=       F
          MOIDON=       F     EDCOMP=       F
          DIPDCM=       F      NPROT=       0
          QADDCM=       F     DEPRNT=       F
          POLNUM=       F     ORIENT=       F
          POLDYN=       F      VMTOL=1.50E-01
          NPRDTL=       2     IBOYAL=       1
          MOOUTA =      1    2    3    4    5    6    7    8

          --------------
          OPENMP OPTIONS
          --------------
 INTOMP  =       1
 SHFOCK  =       F

 THREADED 2-ELECTRON INTEGRAL CODE WILL BE USED
 NUMBER OF OPENMP THREADS:    68

 2E INTS ALGORITHM: MPI(I)  + OPENMP(JK)
 PRIVATE FOCK MATRIX CODE WILL BE USED

          ----------------------
          INTEGRAL INPUT OPTIONS
          ----------------------
 NOPK  =       1 NORDER=       0 SCHWRZ=       T

          -----------------------
          MP2 CONTROL INFORMATION
          -----------------------
          NACORE =        8  NBCORE =        8
          LMOMP2 =        F  AOINTS = DUP     
          METHOD =        2  NWORD  =               0
          MP2PRP =        F  OSPT   = NONE    
          CUTOFF = 1.00E-12  CPHFBS = BASISAO 
          CODE   = OMPRIMP2

          NUMBER OF CORE -A-  ORBITALS =     8
          NUMBER OF CORE -B-  ORBITALS =     8
          NUMBER OF OCC. -A-  ORBITALS =    18
          NUMBER OF OCC. -B-  ORBITALS =    18
          NUMBER OF MOLECULAR ORBITALS =    42
          NUMBER OF   BASIS  FUNCTIONS =    42


 ..... DONE SETTING UP THE RUN .....
 STEP CPU TIME =    12.38 TOTAL CPU TIME =         12.4 (      0.2 MIN)
 TOTAL WALL CLOCK TIME=          0.9 SECONDS, CPU UTILIZATION IS  1304.21%
 CPU     0: STEP CPU TIME=     0.10 TOTAL CPU TIME=         12.5 (      0.2 MIN)
 TOTAL WALL CLOCK TIME=          1.1 SECONDS, CPU UTILIZATION IS  1178.30%

                    ----------------------
                    AO INTEGRAL TECHNOLOGY
                    ----------------------
     S,P,L SHELL ROTATED AXIS INTEGRALS, REPROGRAMMED BY
        KAZUYA ISHIMURA (IMS) AND JOSE SIERRA (SYNSTAR).
     S,P,D,L SHELL ROTATED AXIS INTEGRALS PROGRAMMED BY
        KAZUYA ISHIMURA (INSTITUTE FOR MOLECULAR SCIENCE).
     S,P,D,F,G SHELL TO TOTAL QUARTET ANGULAR MOMENTUM SUM 5,
        ERIC PROGRAM BY GRAHAM FLETCHER (ELORET AND NASA ADVANCED
        SUPERCOMPUTING DIVISION, AMES RESEARCH CENTER).
     S,P,D,F,G,L SHELL GENERAL RYS QUADRATURE PROGRAMMED BY
        MICHEL DUPUIS (PACIFIC NORTHWEST NATIONAL LABORATORY).
 Setting WHERE=ORIGINP (origin) as EFMO default.
 This can be changed with WHERE option in $ELMOM
 Setting WHERE=ORIGINP (origin) as EFMO default.
 This can be changed with WHERE option in $ELMOM
 Setting WHERE=ORIGINP (origin) as EFMO default.
 This can be changed with WHERE option in $ELMOM
 Setting WHERE=ORIGINP (origin) as EFMO default.
 This can be changed with WHERE option in $ELMOM
 Setting WHERE=ORIGINP (origin) as EFMO default.
 This can be changed with WHERE option in $ELMOM
 Setting WHERE=ORIGINP (origin) as EFMO default.
 This can be changed with WHERE option in $ELMOM
 Setting WHERE=ORIGINP (origin) as EFMO default.
 This can be changed with WHERE option in $ELMOM
 Setting WHERE=ORIGINP (origin) as EFMO default.
 This can be changed with WHERE option in $ELMOM
 Setting WHERE=ORIGINP (origin) as EFMO default.
 This can be changed with WHERE option in $ELMOM
 Setting WHERE=ORIGINP (origin) as EFMO default.
 This can be changed with WHERE option in $ELMOM
 Setting WHERE=ORIGINP (origin) as EFMO default.
 This can be changed with WHERE option in $ELMOM
 Setting WHERE=ORIGINP (origin) as EFMO default.
 This can be changed with WHERE option in $ELMOM
 Setting WHERE=ORIGINP (origin) as EFMO default.
 This can be changed with WHERE option in $ELMOM
 Setting WHERE=ORIGINP (origin) as EFMO default.
 This can be changed with WHERE option in $ELMOM
 Setting WHERE=ORIGINP (origin) as EFMO default.
 This can be changed with WHERE option in $ELMOM
 Setting WHERE=ORIGINP (origin) as EFMO default.
 This can be changed with WHERE option in $ELMOM
 Setting WHERE=ORIGINP (origin) as EFMO default.
 This can be changed with WHERE option in $ELMOM
 Setting WHERE=ORIGINP (origin) as EFMO default.
 This can be changed with WHERE option in $ELMOM
 Setting WHERE=ORIGINP (origin) as EFMO default.
 This can be changed with WHERE option in $ELMOM
 Setting WHERE=ORIGINP (origin) as EFMO default.
 This can be changed with WHERE option in $ELMOM
 Setting WHERE=ORIGINP (origin) as EFMO default.
 This can be changed with WHERE option in $ELMOM

 FMO/AFO does not work with correlated wave functions.

 STEP CPU TIME =     2.94 TOTAL CPU TIME =         15.4 (      0.3 MIN)
 TOTAL WALL CLOCK TIME=          1.4 SECONDS, CPU UTILIZATION IS  1094.33%
 STEP CPU TIME =     0.00 TOTAL CPU TIME =         15.4 (      0.3 MIN)
 TOTAL WALL CLOCK TIME=          1.4 SECONDS, CPU UTILIZATION IS  1094.33%
 Initialising fragments
 STEP CPU TIME =     1.90 TOTAL CPU TIME =         17.3 (      0.3 MIN)
 TOTAL WALL CLOCK TIME=          1.4 SECONDS, CPU UTILIZATION IS  1203.47%
 STEP CPU TIME =     0.06 TOTAL CPU TIME =         17.4 (      0.3 MIN)
 TOTAL WALL CLOCK TIME=          1.4 SECONDS, CPU UTILIZATION IS  1207.64%
 Setting WHERE=ORIGINP (origin) as EFMO default.
 This can be changed with WHERE option in $ELMOM
 Setting WHERE=ORIGINP (origin) as EFMO default.
 This can be changed with WHERE option in $ELMOM
 Setting WHERE=ORIGINP (origin) as EFMO default.
 This can be changed with WHERE option in $ELMOM
 Setting WHERE=ORIGINP (origin) as EFMO default.
 This can be changed with WHERE option in $ELMOM
 Setting WHERE=ORIGINP (origin) as EFMO default.
 This can be changed with WHERE option in $ELMOM
 Setting WHERE=ORIGINP (origin) as EFMO default.
 This can be changed with WHERE option in $ELMOM
 Setting WHERE=ORIGINP (origin) as EFMO default.
 This can be changed with WHERE option in $ELMOM
 Setting WHERE=ORIGINP (origin) as EFMO default.
 This can be changed with WHERE option in $ELMOM
 Setting WHERE=ORIGINP (origin) as EFMO default.
 This can be changed with WHERE option in $ELMOM
 Setting WHERE=ORIGINP (origin) as EFMO default.
 This can be changed with WHERE option in $ELMOM
 Setting WHERE=ORIGINP (origin) as EFMO default.
 This can be changed with WHERE option in $ELMOM
 OPENING FILE SOCCDAT WITH     129 LOGICAL RECORDS OF  321201 WORDS
 WITH A MAXIMUM OF         258 PHYSICAL RECORDS OF  204800 WORDS

 -----------------------------------------------------------------------
                  The Fragment Molecular Orbital (FMO) method.
                       The program is developed at the
                     Nanoscience Research Institute (NRI)
     (formerly, Research Institute for Computational Sciences, RICS)
 National Institute of Advanced Industrial Science and Technology (AIST)
     AIST Tsukuba Central 2, Umezono 1-1-1, Tsukuba, 305-8568, Japan.

                         Version 5.3
                    coded by D. G. Fedorov and K. Kitaura,
 with contributions from N. Asada, K.R. Brorsen, M. Chiba, C. Choi, N. Minezawa,
 T. Nagata, H. Nakata, Y. Nishimoto, S.R. Pruitt, C. Steinmann, and F. Zahariev.
       All publications using the FMO method in GAMESS should reference:
          D. G. Fedorov, K. Kitaura, J. Chem. Phys. 120, 6832 (2004).
 -----------------------------------------------------------------------

 Used memory (words):     17048517
 Number of fragments:     32
 Number of layers:         1
 N-body FMO method:        2
 Number of atoms:       1738
 Total charge:             0
 Total spin multiplicity:  1
 Number of basis sets:     1
 Number of LMO types:      0
 Number of boundaries:   200
 MonomerSCF convergence:   0.1000E-06
 Max monomerSCF iter:     30
 MonomerSCF criterion:     internal
 Max AOs per n-mer:      801     1578
 Projection operator constant:  0.10E+07
 Layer electron correlation information
     nbody=  2
    SCFTYP=RHF     
    MPLEVL=  2
    DFTTYP=NONE    
     CITYP=NONE    
     CCTYP=NONE    
     TDDFT=NONE    
 FMO method: EFMO2-MP2

 Bond fragmentation scheme: AFO0
    One AFO per bond frozen.
    Weak localisation.
    Using partial Mulliken localization criterion.

 FMO approximations.
    Using point charge approximation for the 2e ESP with the VdW factor   2.00
    Using ES-dimer approximation with the VdW factor   0.50
    No dynamic correlation for dimers with the VdW factor    0.50
    No gradient contribution from separated dimers.
    The uniform distances will be used in ESPs.
    Van der Waals radii in Angstrom are:
       R(O  )=  1.4000
       R(C  )=  1.5000
       R(SI )=  1.1700
       R(H  )=  1.2000
       R(N  )=  1.5000

 FMO initial guess options.
    Using monomer density to form dimer guess.

 FMO extensions.
    Point charge screening parameters:    0.1000    0.1000

 FMO automation options.

 FMO SCF converger options.
    SCF convergers:
    833    833    833    833    833    833    833    833    833    833
    Fragment densities will be exchanged.

 FMO parallelisation options.
    Smart parallel load balancing: large jobs first.
    ESPs will be shell parallelised.
    Broadcast all fragments at once.
    Do the fragment initialisation in the reverse order.
    Layer 1, monomer(SCF,MP2,MCSCF) groups are:   32    0    0
    Layer 1,   dimer(SCF,ESD,MCSCF) groups are:   32    0    0

 FMO properties and print-out level.
    Interfragment CT method:    4
    Voluminous print-out level.

 Array dimensions maxbnd,maxknd,maxcbs,maxcao,maxbbd are:
                     201     10     13      9     13

 --------------------------------------------------



 ----------------------------------------------------------------------
 THIS IS AN EFFECTIVE FRAGMENT MOLECULAR ORBITAL (EFMO) RUN.
   USING EFP MODELS FOR MANY-BODY INTERACTIONS.

   ALL PUBLICATIONS USING EFMO SHOULD REFERENCE:
     C. STEINMANN, D.G. FEDOROV, J.H. JENSEN, J. CHEM. PHYS. A 114, 8705 (2010)

     EFMO STORAGE REQUIRES 249526306 WORDS.

     EFP Electrostatic Options
       No screening of electrostaic moments
       Tang-Toennis style screening   0.1000   0.1000
       Ignore torque contribution on gradient
       Multipole expansion on atoms only

     EFP Polarization Options
       Distribute gradient by percentage between close atoms
       Ignore torque contribution on gradient

     EFP Dispersion Options
       No Dispersion
       Distribute gradient by percentage between close atoms
       Ignore torque contribution on gradient

     EFP Charge Transfer Options
       Charge Transfer interaction for separated pairs

     EFP Exchange Repulsion Options
       Exchange Repulsion interaction for separated pairs

 ----------------------------------------------------------------------


 Starting layer 1 nbody=2
 SCFTYP=RHF     MPLEVL=2 DFTTYP=NONE    CITYP=NONE    CCTYP=NONE    TDDFT=NONE    


 STEP CPU TIME =    11.56 TOTAL CPU TIME =         29.0 (      0.5 MIN)
 TOTAL WALL CLOCK TIME=          5.7 SECONDS, CPU UTILIZATION IS   507.01%

 Running initial guess for monomer      32


          ********************
          1 ELECTRON INTEGRALS
          ********************
 ...... END OF ONE-ELECTRON INTEGRALS ......
 STEP CPU TIME =     1.75 TOTAL CPU TIME =         30.7 (      0.5 MIN)
 TOTAL WALL CLOCK TIME=          7.4 SECONDS, CPU UTILIZATION IS   412.08%

          -------------
          GUESS OPTIONS
          -------------
          GUESS =HUCKEL            NORB  =       0          NORDER=       0
          MIX   =       F          PRTMO =       F          PUNMO =       F
          TOLZ  = 1.0E-08          TOLE  = 1.0E-05
          SYMDEN=       F          PURIFY=       F

 INITIAL GUESS ORBITALS GENERATED BY HUCKEL   ROUTINE.
 HUCKEL GUESS REQUIRES   2545434 WORDS.

 SYMMETRIES FOR INITIAL GUESS ORBITALS FOLLOW.   BOTH SET(S).
   230 ORBITALS ARE OCCUPIED (  102 CORE ORBITALS).
   103=A      104=A      105=A      106=A      107=A      108=A      109=A   
   110=A      111=A      112=A      113=A      114=A      115=A      116=A   
   117=A      118=A      119=A      120=A      121=A      122=A      123=A   
   124=A      125=A      126=A      127=A      128=A      129=A      130=A   
   131=A      132=A      133=A      134=A      135=A      136=A      137=A   
   138=A      139=A      140=A      141=A      142=A      143=A      144=A   
   145=A      146=A      147=A      148=A      149=A      150=A      151=A   
   152=A      153=A      154=A      155=A      156=A      157=A      158=A   
   159=A      160=A      161=A      162=A      163=A      164=A      165=A   
   166=A      167=A      168=A      169=A      170=A      171=A      172=A   
   173=A      174=A      175=A      176=A      177=A      178=A      179=A   
   180=A      181=A      182=A      183=A      184=A      185=A      186=A   
   187=A      188=A      189=A      190=A      191=A      192=A      193=A   
   194=A      195=A      196=A      197=A      198=A      199=A      200=A   
   201=A      202=A      203=A      204=A      205=A      206=A      207=A   
   208=A      209=A      210=A      211=A      212=A      213=A      214=A   
   215=A      216=A      217=A      218=A      219=A      220=A      221=A   
   222=A      223=A      224=A      225=A      226=A      227=A      228=A   
   229=A      230=A      231=A      232=A      233=A      234=A      235=A   
   236=A      237=A      238=A      239=A      240=A   
 ...... END OF INITIAL ORBITAL SELECTION ......
 STEP CPU TIME =  6113.12 TOTAL CPU TIME =       6143.8 (    102.4 MIN)
 TOTAL WALL CLOCK TIME=         97.6 SECONDS, CPU UTILIZATION IS  6296.83%

 There are         462 separated and      34 SCF (      34 of them correlated) dimers.
 Estimate of max dimer size: 1404 AOs,  610 occ. MOs

 Fragment statistics

      I  NAME     Q NAT0 NATB NA  NAO LAY MUL SCFTYP        NOP     MOL    CONV
 ==============================================================================
      1 MSN1      0   64   8  246  627 1  1 G RHF             0      -1      -1
      2 FNGRP1    0   12   0   16   52 1  1 G RHF             0      -1      -1
      3 MSN2      0   51  10  205  563 1  1 G RHF             0      -1      -1
      4 MSN3      0   63   4  235  563 1  1 G RHF             0      -1      -1
      5 MSN4      0   60   7  240  603 1  1 G RHF             0      -1      -1
      6 MSN5      0   57   7  235  590 1  1 G RHF             0      -1      -1
      7 MSN6      0   60   7  240  603 1  1 G RHF             0      -1      -1
      8 MSN7      0   57   7  235  590 1  1 G RHF             0      -1      -1
      9 MSN8      0   63   4  240  570 1  1 G RHF             0      -1      -1
     10 MSN9      0   61  17  270  777 1  1 G RHF             0      -1      -1
     11 MSN10     0   60   7  240  603 1  1 G RHF             0      -1      -1
     12 MSN11     0   57   7  235  590 1  1 G RHF             0      -1      -1
     13 MSN12     0   58   8  236  601 1  1 G RHF             0      -1      -1
     14 FNGRP2    0   12   0   16   52 1  1 G RHF             0      -1      -1
     15 MSN13     0   75   7  295  722 1  1 G RHF             0      -1      -1
     16 MSN14     0   66   7  250  629 1  1 G RHF             0      -1      -1
     17 MSN15     0   64   7  245  618 1  1 G RHF             0      -1      -1
     18 FNGRP3    0   12   1   17   65 1  1 G RHF             0      -1      -1
     19 MSN16     0   57   1  211  473 1  1 G RHF             0      -1      -1
     20 FNGRP4    0   12   0   16   52 1  1 G RHF             0      -1      -1
     21 MSN17     0   46  11  190  541 1  1 G RHF             0      -1      -1
     22 MSN18     0   53   3  215  502 1  1 G RHF             0      -1      -1
     23 MSN19     0   60   7  240  603 1  1 G RHF             0      -1      -1
     24 MSN20     0   57   7  235  590 1  1 G RHF             0      -1      -1
     25 MSN21     0   60   7  240  603 1  1 G RHF             0      -1      -1
     26 MSN22     0   61   3  235  546 1  1 G RHF             0      -1      -1
     27 MSN23     0   63  18  275  801 1  1 G RHF             0      -1      -1
     28 MSN24     0   57   7  235  590 1  1 G RHF             0      -1      -1
     29 MSN25     0   60   7  240  603 1  1 G RHF             0      -1      -1
     30 MSN26     0   57   7  235  590 1  1 G RHF             0      -1      -1
     31 MSN27     0   81   4  305  713 1  1 G RHF             0      -1      -1
     32 MSN28     0   62   3  230  541 1  1 G RHF             0      -1      -1
 locfmo:                    26                    27                   163
                   568                    28                    27
                   298                   581                    24
                    25                   298                   513
                    25                    26                   320
                   508                    25                    27
                   333                   594                    26
                    27                   189                   607
                    28                    27                   337
                   620                    29                    28
                   320                   500                    28
                    27                   350                   633
                    29                    28                   333
                   513                    30                    29
                   298                   513                    22
                    23                   262                   513
                    23                    24                   320
                   500                    23                    24
                   333                   513                    24
                    25                   337                   526
                    24                    25                   350
                   539                    25                    26
                   372                   521                    25
                    27                   385                   646
                    26                    27                   215
                   659                    22                    21
                   288                   399                    28
                    27                   389                   672
                    29                    28                   372
                   526                    28                    27
                   402                   685                    30
                    29                   337                   526
                    29                    28                   385
                   539                    31                    30
                   401                   500                    30
                    29                   350                   539
                    31                    30                   414
                   513                    21                    22
                   253                   464                    22
                    23                   301                   526
                    22                    23                   314
                   539                    23                    24
                   372                   526                    23
                    24                   385                   539
                    24                    25                   389
                   552                    24                    25
                   402                   565                    25
                    26                   424                   534
                    25                    27                   437
                   698                    26                    27
                   241                   711                    31
                    32                   440                   503
                    32                    31                   289
                   662                    19                    21
                   253                   412                    22
                    21                   340                   425
                    28                    27                   441
                   724                    29                    28
                   424                   552                    28
                    27                   454                   737
                    30                    29                   389
                   552                    29                    28
                   437                   565                    31
                    30                   466                   526
                    30                    29                   402
                   565                    31                    30
                   479                   539                    32
                     1                   315                   528
                    19                    21                   266
                   438                    21                    22
                   292                   477                    19
                    17                   279                   528
                    22                    23                   353
                   552                    22                    23
                   366                   565                    23
                    24                   424                   552
                    23                    24                   437
                   565                    24                    25
                   441                   578                    24
                    25                   454                   591
                    25                    27                   476
                   750                    32                     1
                   328                   541                    31
                    32                   505                   516
                    32                    31                   341
                   675                    19                    17
                   292                   541                    19
                    21                   305                   451
                    22                    21                   392
                   464                    29                    28
                   476                   578                    30
                    29                   441                   578
                    31                    30                   531
                   552                    30                    29
                   454                   591                    31
                    30                   544                   565
                     3                     4                    73
                   512                    32                     1
                   367                   554                    19
                    21                   318                   477
                    21                    22                   331
                   490                    16                    15
                   288                   632                    19
                    17                   331                   554
                    22                    23                   405
                   578                    22                    23
                   418                   591                    23
                    24                   476                   578
                     4                     3                   298
                   434                    32                     1
                   380                   567                    31
                    32                   570                   529
                    32                    31                   393
                   688                    16                    15
                   301                   645                    19
                    17                   344                   567
                    19                    21                   357
                   490                    22                    21
                   431                   503                    31
                    30                   596                   578
                     4                     5                   324
                   513                     3                     4
                    86                   525                    32
                     1                   419                   580
                    19                    21                   370
                   516                    16                    15
                   340                   658                    19
                    17                   383                   580
                     4                     3                   337
                   447                    32                     1
                   432                   593                    32
                    31                   445                   701
                    16                    15                   353
                   671                    19                    17
                   396                   593                    19
                    21                   409                   529
                     5                     6                   298
                   500                     4                     5
                   363                   526                     4
                     5                   376                   539
                     3                     4                    99
                   538                    32                     1
                   458                   606                    15
                    13                   405                   502
                    16                    15                   392
                   684                    19                    17
                   422                   606                    15
                    13                   418                   515
                    13                    12                   298
                   500                     4                     3
                   389                   460                    16
                    15                   405                   697
                     7                     8                   307
                   500                     6                     7
                   311                   513                     6
                     7                   324                   526
                     5                     6                   337
                   513                     5                     6
                   350                   526                     4
                     5                   415                   552
                     4                     5                   428
                   565                     3                     4
                   112                   551                    15
                    13                   470                   528
                    16                    15                   431
                   710                    13                    12
                   337                   513                    15
                    13                   483                   541
                    12                    11                   311
                   513                    13                    12
                   350                   526                    12
                    11                   324                   526
                    11                    10                   307
                   557                     8                    10
                   311                   570                     8
                     9                   324                   519
                     7                     8                   346
                   513                     7                     8
                   359                   526                     6
                     7                   363                   539
                     6                     7                   376
                   552                     5                     6
                   389                   539                     5
                     6                   402                   552
                     4                     5                   454
                   578                    15                    13
                   535                   554                    13
                    12                   389                   539
                    15                    13                   548
                   567                    12                    11
                   363                   539                    13
                    12                   402                   552
                    11                    10                   346
                   583                    12                    11
                   376                   552                    11
                    10                   359                   596
                     9                    10                   185
                   609                     8                    10
                   363                   622                     8
                     9                   376                   532
                     7                     8                   398
                   539                     7                     8
                   411                   552                     6
                     7                   415                   565
                     6                     7                   428
                   578                     5                     6
                   441                   565                     5
                     6                   454                   578
                     4                     5                   467
                   591                    15                    13
                   587                   580                    13
                    12                   441                   565
                    12                    11                   415
                   565                    13                    12
                   454                   578                    11
                    10                   398                   635
                    12                    11                   428
                   578                    11                    10
                   411                   648                     9
                    10                   211                   661
                     8                    10                   415
                   674                     8                     9
                   428                   545                     7
                     8                   450                   565
                     7                     8                   463
                   578                     6                     7
                   467                   591                    12
                    11                   467                   591
                    11                    10                   450
                   687                    11                    10
                   463                   700                     9
                    10                   237                   713
                     8                     9                   467
                   558                    26                    27
                   402                   763                    26
                    27                   428                   776
                    26                    27                   454
                   789                     9                    10
                   398                   726                     9
                    10                   424                   739
                     9                    10                   450
                   752                     9                    10
                   476                   765                    17
                    16                   342                   539
                    17                    16                   355
                   552                    17                    16
                   394                   565                    17
                    16                   407                   578
                    17                    16                   446
                   591                    17                    16
                   459                   604                    17
                    16                   485                   617
                     1                     3                   407
                   473                     1                     3
                   420                   486                     1
                     3                   433                   499
                     1                     3                   446
                   512                     1                     3
                   459                   525                     1
                     3                   472                   538
                     1                     3                   485
                   551                     2                     1
                     1                   619                    14
                    13                     1                   593
                    17                    18                   420
                    53                    20                    19
                     1                   465
 nactfmo:                     0
 nmdfrg1:                     3                     1                     2
                     2                     2                     2
                     2                     3                     2
                     3                     2                     2
                     3                     1                     2
                     2                     3                     1
                     3                     1                     2
                     2                     2                     2
                     3                     2                     3
                     2                     2                     2
                     2                     2
 nmdfrg2:                     3                     1                     2
                     2                     2                     2
                     2                     3                     2
                     3                     2                     2
                     3                     1                     2
                     2                     3                     1
                     3                     1                     2
                     2                     2                     2
                     3                     2                     3
                     2                     2                     2
                     2                     2

 Close fragment pairs, distance relative to vdW radii

 Warning: frgs     3     1 are cross-linked( 1): bond   190 atoms   1336   1303
 Warning: frgs     3     1 are cross-linked( 2): bond   191 atoms   1337   1306
 Warning: frgs     3     1 are cross-linked( 3): bond   192 atoms   1340   1313
 Warning: frgs     3     1 are cross-linked( 4): bond   193 atoms   1341   1316
 Warning: frgs     3     1 are cross-linked( 5): bond   194 atoms   1344   1323
 Warning: frgs     3     1 are cross-linked( 6): bond   195 atoms   1345   1326
 Warning: frgs     3     1 are cross-linked( 7): bond   196 atoms   1348   1332
 Warning: frgs     4     3 are cross-linked( 1): bond    73 atoms    999    379
 Warning: frgs     4     3 are cross-linked( 2): bond    82 atoms   1012   1311
 Warning: frgs     4     3 are cross-linked( 3): bond    92 atoms   1029    445
 Warning: frgs     4     3 are cross-linked( 4): bond    97 atoms   1037   1321
 Warning: frgs     4     3 are cross-linked( 5): bond   106 atoms   1051    505
 Warning: frgs     4     3 are cross-linked( 6): bond   113 atoms   1062   1330
 Warning: frgs     4     3 are cross-linked( 7): bond   122 atoms   1080    582
 Warning: frgs     5     4 are cross-linked( 1): bond    91 atoms   1026    499
 Warning: frgs     5     4 are cross-linked( 2): bond   104 atoms   1048    578
 Warning: frgs     5     4 are cross-linked( 3): bond   105 atoms   1050    504
 Warning: frgs     5     4 are cross-linked( 4): bond   120 atoms   1078    667
 Warning: frgs     5     4 are cross-linked( 5): bond   121 atoms   1079    581
 Warning: frgs     5     4 are cross-linked( 6): bond   139 atoms   1115    669
 Warning: frgs     5     4 are cross-linked( 7): bond   157 atoms   1155    758
 Warning: frgs     6     5 are cross-linked( 1): bond   103 atoms   1047    496
 Warning: frgs     6     5 are cross-linked( 2): bond   118 atoms   1076    574
 Warning: frgs     6     5 are cross-linked( 3): bond   119 atoms   1077    577
 Warning: frgs     6     5 are cross-linked( 4): bond   137 atoms   1113    663
 Warning: frgs     6     5 are cross-linked( 5): bond   138 atoms   1114    666
 Warning: frgs     6     5 are cross-linked( 6): bond   155 atoms   1153    753
 Warning: frgs     6     5 are cross-linked( 7): bond   156 atoms   1154    756
 Warning: frgs     7     6 are cross-linked( 1): bond   116 atoms   1074    570
 Warning: frgs     7     6 are cross-linked( 2): bond   117 atoms   1075    573
 Warning: frgs     7     6 are cross-linked( 3): bond   135 atoms   1111    659
 Warning: frgs     7     6 are cross-linked( 4): bond   136 atoms   1112    662
 Warning: frgs     7     6 are cross-linked( 5): bond   153 atoms   1151    749
 Warning: frgs     7     6 are cross-linked( 6): bond   154 atoms   1152    752
 Warning: frgs     7     6 are cross-linked( 7): bond   170 atoms   1185    819
 Warning: frgs     8     7 are cross-linked( 1): bond   115 atoms   1073    568
 Warning: frgs     8     7 are cross-linked( 2): bond   133 atoms   1109    655
 Warning: frgs     8     7 are cross-linked( 3): bond   134 atoms   1110    658
 Warning: frgs     8     7 are cross-linked( 4): bond   151 atoms   1149    745
 Warning: frgs     8     7 are cross-linked( 5): bond   152 atoms   1150    748
 Warning: frgs     8     7 are cross-linked( 6): bond   168 atoms   1183    814
 Warning: frgs     8     7 are cross-linked( 7): bond   169 atoms   1184    817
 Warning: frgs     9     8 are cross-linked( 1): bond   132 atoms   1108    654
 Warning: frgs     9     8 are cross-linked( 2): bond   150 atoms   1148    744
 Warning: frgs     9     8 are cross-linked( 3): bond   167 atoms   1182    813
 Warning: frgs     9     8 are cross-linked( 4): bond   175 atoms   1199    846
 Warning: frgs    10     8 are cross-linked( 1): bond   131 atoms   1107    651
 Warning: frgs    10     8 are cross-linked( 2): bond   149 atoms   1147    741
 Warning: frgs    10     8 are cross-linked( 3): bond   166 atoms   1181    810
 Warning: frgs    10     9 are cross-linked( 1): bond   148 atoms   1146    693
 Warning: frgs    10     9 are cross-linked( 2): bond   165 atoms   1180    777
 Warning: frgs    10     9 are cross-linked( 3): bond   174 atoms   1198    830
 Warning: frgs    10     9 are cross-linked( 4): bond   179 atoms   1243    690
 Warning: frgs    10     9 are cross-linked( 5): bond   180 atoms   1245    774
 Warning: frgs    10     9 are cross-linked( 6): bond   181 atoms   1247    827
 Warning: frgs    10     9 are cross-linked( 7): bond   182 atoms   1249    849
 Warning: frgs    11    10 are cross-linked( 1): bond   130 atoms   1089    603
 Warning: frgs    11    10 are cross-linked( 2): bond   145 atoms   1122    686
 Warning: frgs    11    10 are cross-linked( 3): bond   147 atoms   1125    691
 Warning: frgs    11    10 are cross-linked( 4): bond   162 atoms   1160    770
 Warning: frgs    11    10 are cross-linked( 5): bond   164 atoms   1163    775
 Warning: frgs    11    10 are cross-linked( 6): bond   172 atoms   1187    824
 Warning: frgs    11    10 are cross-linked( 7): bond   173 atoms   1189    828
 Warning: frgs    12    11 are cross-linked( 1): bond   127 atoms   1086    597
 Warning: frgs    12    11 are cross-linked( 2): bond   129 atoms   1088    601
 Warning: frgs    12    11 are cross-linked( 3): bond   143 atoms   1120    682
 Warning: frgs    12    11 are cross-linked( 4): bond   146 atoms   1123    687
 Warning: frgs    12    11 are cross-linked( 5): bond   160 atoms   1158    766
 Warning: frgs    12    11 are cross-linked( 6): bond   163 atoms   1161    771
 Warning: frgs    12    11 are cross-linked( 7): bond   171 atoms   1186    822
 Warning: frgs    13    12 are cross-linked( 1): bond   112 atoms   1059    525
 Warning: frgs    13    12 are cross-linked( 2): bond   125 atoms   1084    593
 Warning: frgs    13    12 are cross-linked( 3): bond   128 atoms   1087    598
 Warning: frgs    13    12 are cross-linked( 4): bond   141 atoms   1118    678
 Warning: frgs    13    12 are cross-linked( 5): bond   144 atoms   1121    683
 Warning: frgs    13    12 are cross-linked( 6): bond   159 atoms   1157    763
 Warning: frgs    13    12 are cross-linked( 7): bond   161 atoms   1159    767
 Warning: frgs    15    13 are cross-linked( 1): bond   108 atoms   1055    517
 Warning: frgs    15    13 are cross-linked( 2): bond   111 atoms   1058    523
 Warning: frgs    15    13 are cross-linked( 3): bond   123 atoms   1082    589
 Warning: frgs    15    13 are cross-linked( 4): bond   126 atoms   1085    594
 Warning: frgs    15    13 are cross-linked( 5): bond   140 atoms   1117    674
 Warning: frgs    15    13 are cross-linked( 6): bond   142 atoms   1119    679
 Warning: frgs    15    13 are cross-linked( 7): bond   158 atoms   1156    761
 Warning: frgs    16    15 are cross-linked( 1): bond    77 atoms   1005    458
 Warning: frgs    16    15 are cross-linked( 2): bond    86 atoms   1019    481
 Warning: frgs    16    15 are cross-linked( 3): bond    95 atoms   1034    518
 Warning: frgs    16    15 are cross-linked( 4): bond   100 atoms   1042    548
 Warning: frgs    16    15 are cross-linked( 5): bond   109 atoms   1056    590
 Warning: frgs    16    15 are cross-linked( 6): bond   114 atoms   1067    629
 Warning: frgs    16    15 are cross-linked( 7): bond   124 atoms   1083    675
 Warning: frgs    17    16 are cross-linked( 1): bond   183 atoms   1288   1258
 Warning: frgs    17    16 are cross-linked( 2): bond   184 atoms   1289   1261
 Warning: frgs    17    16 are cross-linked( 3): bond   185 atoms   1292   1268
 Warning: frgs    17    16 are cross-linked( 4): bond   186 atoms   1293   1271
 Warning: frgs    17    16 are cross-linked( 5): bond   187 atoms   1296   1278
 Warning: frgs    17    16 are cross-linked( 6): bond   188 atoms   1297   1280
 Warning: frgs    17    16 are cross-linked( 7): bond   189 atoms   1299   1285
 Warning: frgs    19    17 are cross-linked( 1): bond    54 atoms    964    299
 Warning: frgs    19    17 are cross-linked( 2): bond    65 atoms    983    343
 Warning: frgs    19    17 are cross-linked( 3): bond    78 atoms   1006    396
 Warning: frgs    19    17 are cross-linked( 4): bond    87 atoms   1020    425
 Warning: frgs    19    17 are cross-linked( 5): bond    96 atoms   1035    459
 Warning: frgs    19    17 are cross-linked( 6): bond   101 atoms   1043    482
 Warning: frgs    19    17 are cross-linked( 7): bond   110 atoms   1057    519
 Warning: frgs    21    19 are cross-linked( 1): bond    41 atoms    942    193
 Warning: frgs    21    19 are cross-linked( 2): bond    52 atoms    962    241
 Warning: frgs    21    19 are cross-linked( 3): bond    66 atoms    987    300
 Warning: frgs    21    19 are cross-linked( 4): bond    75 atoms   1003    344
 Warning: frgs    21    19 are cross-linked( 5): bond    88 atoms   1023    397
 Warning: frgs    21    19 are cross-linked( 6): bond    94 atoms   1033    426
 Warning: frgs    21    19 are cross-linked( 7): bond   102 atoms   1046    460
 Warning: frgs    22    21 are cross-linked( 1): bond    20 atoms    899    143
 Warning: frgs    22    21 are cross-linked( 2): bond    29 atoms    918    140
 Warning: frgs    22    21 are cross-linked( 3): bond    42 atoms    943    247
 Warning: frgs    22    21 are cross-linked( 4): bond    53 atoms    963    242
 Warning: frgs    22    21 are cross-linked( 5): bond    67 atoms    988    352
 Warning: frgs    22    21 are cross-linked( 6): bond    76 atoms   1004    345
 Warning: frgs    22    21 are cross-linked( 7): bond    89 atoms   1024    432
 Warning: frgs    23    22 are cross-linked( 1): bond    12 atoms    881     61
 Warning: frgs    23    22 are cross-linked( 2): bond    30 atoms    920    144
 Warning: frgs    23    22 are cross-linked( 3): bond    31 atoms    921    147
 Warning: frgs    23    22 are cross-linked( 4): bond    55 atoms    966    248
 Warning: frgs    23    22 are cross-linked( 5): bond    56 atoms    967    252
 Warning: frgs    23    22 are cross-linked( 6): bond    79 atoms   1008    353
 Warning: frgs    23    22 are cross-linked( 7): bond    80 atoms   1009    358
 Warning: frgs    24    23 are cross-linked( 1): bond    13 atoms    882     63
 Warning: frgs    24    23 are cross-linked( 2): bond    14 atoms    883     66
 Warning: frgs    24    23 are cross-linked( 3): bond    32 atoms    922    148
 Warning: frgs    24    23 are cross-linked( 4): bond    33 atoms    923    151
 Warning: frgs    24    23 are cross-linked( 5): bond    57 atoms    968    253
 Warning: frgs    24    23 are cross-linked( 6): bond    58 atoms    969    256
 Warning: frgs    24    23 are cross-linked( 7): bond    81 atoms   1010    360
 Warning: frgs    25    24 are cross-linked( 1): bond     3 atoms    859     16
 Warning: frgs    25    24 are cross-linked( 2): bond    15 atoms    884     67
 Warning: frgs    25    24 are cross-linked( 3): bond    16 atoms    885     70
 Warning: frgs    25    24 are cross-linked( 4): bond    34 atoms    924    152
 Warning: frgs    25    24 are cross-linked( 5): bond    35 atoms    925    155
 Warning: frgs    25    24 are cross-linked( 6): bond    59 atoms    970    257
 Warning: frgs    25    24 are cross-linked( 7): bond    60 atoms    971    260
 Warning: frgs    26    25 are cross-linked( 1): bond     4 atoms    860     18
 Warning: frgs    26    25 are cross-linked( 2): bond    17 atoms    886     71
 Warning: frgs    26    25 are cross-linked( 3): bond    36 atoms    926    156
 Warning: frgs    27    25 are cross-linked( 1): bond     5 atoms    861     21
 Warning: frgs    27    25 are cross-linked( 2): bond    18 atoms    887     74
 Warning: frgs    27    25 are cross-linked( 3): bond    37 atoms    927    159
 Warning: frgs    27    25 are cross-linked( 4): bond    61 atoms    972    262
 Warning: frgs    27    26 are cross-linked( 1): bond     1 atoms    852      9
 Warning: frgs    27    26 are cross-linked( 2): bond     6 atoms    862     46
 Warning: frgs    27    26 are cross-linked( 3): bond    19 atoms    888    117
 Warning: frgs    27    26 are cross-linked( 4): bond    38 atoms    928    214
 Warning: frgs    27    26 are cross-linked( 5): bond   176 atoms   1222     11
 Warning: frgs    27    26 are cross-linked( 6): bond   177 atoms   1224     49
 Warning: frgs    27    26 are cross-linked( 7): bond   178 atoms   1226    120
 Warning: frgs    28    27 are cross-linked( 1): bond     2 atoms    858     13
 Warning: frgs    28    27 are cross-linked( 2): bond     7 atoms    875     48
 Warning: frgs    28    27 are cross-linked( 3): bond     9 atoms    878     53
 Warning: frgs    28    27 are cross-linked( 4): bond    21 atoms    908    119
 Warning: frgs    28    27 are cross-linked( 5): bond    23 atoms    911    124
 Warning: frgs    28    27 are cross-linked( 6): bond    43 atoms    951    216
 Warning: frgs    28    27 are cross-linked( 7): bond    45 atoms    953    220
 Warning: frgs    29    28 are cross-linked( 1): bond     8 atoms    877     52
 Warning: frgs    29    28 are cross-linked( 2): bond    10 atoms    879     56
 Warning: frgs    29    28 are cross-linked( 3): bond    22 atoms    910    123
 Warning: frgs    29    28 are cross-linked( 4): bond    25 atoms    913    128
 Warning: frgs    29    28 are cross-linked( 5): bond    44 atoms    952    219
 Warning: frgs    29    28 are cross-linked( 6): bond    47 atoms    955    224
 Warning: frgs    29    28 are cross-linked( 7): bond    68 atoms    992    318
 Warning: frgs    30    29 are cross-linked( 1): bond    11 atoms    880     58
 Warning: frgs    30    29 are cross-linked( 2): bond    24 atoms    912    127
 Warning: frgs    30    29 are cross-linked( 3): bond    27 atoms    915    132
 Warning: frgs    30    29 are cross-linked( 4): bond    46 atoms    954    223
 Warning: frgs    30    29 are cross-linked( 5): bond    49 atoms    957    228
 Warning: frgs    30    29 are cross-linked( 6): bond    69 atoms    993    320
 Warning: frgs    30    29 are cross-linked( 7): bond    71 atoms    995    324
 Warning: frgs    31    30 are cross-linked( 1): bond    26 atoms    914    131
 Warning: frgs    31    30 are cross-linked( 2): bond    28 atoms    916    135
 Warning: frgs    31    30 are cross-linked( 3): bond    48 atoms    956    227
 Warning: frgs    31    30 are cross-linked( 4): bond    50 atoms    959    232
 Warning: frgs    31    30 are cross-linked( 5): bond    70 atoms    994    323
 Warning: frgs    31    30 are cross-linked( 6): bond    72 atoms    998    330
 Warning: frgs    31    30 are cross-linked( 7): bond    90 atoms   1025    406
 Warning: frgs    32     1 are cross-linked( 1): bond    51 atoms    960    286
 Warning: frgs    32     1 are cross-linked( 2): bond    62 atoms    977    328
 Warning: frgs    32     1 are cross-linked( 3): bond    74 atoms   1000    380
 Warning: frgs    32     1 are cross-linked( 4): bond    83 atoms   1013    411
 Warning: frgs    32     1 are cross-linked( 5): bond    93 atoms   1030    446
 Warning: frgs    32     1 are cross-linked( 6): bond    98 atoms   1038    469
 Warning: frgs    32     1 are cross-linked( 7): bond   107 atoms   1052    506
 Warning: frgs    32    31 are cross-linked( 1): bond    39 atoms    936    231
 Warning: frgs    32    31 are cross-linked( 2): bond    40 atoms    938    185
 Warning: frgs    32    31 are cross-linked( 3): bond    63 atoms    978    329
 Warning: frgs    32    31 are cross-linked( 4): bond    64 atoms    981    287
 Warning: frgs    32    31 are cross-linked( 5): bond    84 atoms   1014    412
 Warning: frgs    32    31 are cross-linked( 6): bond    85 atoms   1017    381
 Warning: frgs    32    31 are cross-linked( 7): bond    99 atoms   1041    447
 STEP CPU TIME =   121.96 TOTAL CPU TIME =       6265.8 (    104.4 MIN)
 TOTAL WALL CLOCK TIME=        207.9 SECONDS, CPU UTILIZATION IS  3013.55%
 jobs:                    15                    20                     1
                     2                    29                     6
                    30                    19                    27
                     7                    25                    13
                    28                    24                    17
                     9                    12                    23
                    11                    31                    14
                     8                    18                    16
                     4                    26                     5
                    10                     3                    21
                    22                     0
 dmexch needs               1930410  words of memory.
 STEP CPU TIME =     0.38 TOTAL CPU TIME =       6266.2 (    104.4 MIN)
 TOTAL WALL CLOCK TIME=        208.3 SECONDS, CPU UTILIZATION IS  3008.24%

 Data exchange of   5214280 words took     0.4 s.
 STEP CPU TIME =     0.00 TOTAL CPU TIME =       6266.2 (    104.4 MIN)
 TOTAL WALL CLOCK TIME=        208.3 SECONDS, CPU UTILIZATION IS  3008.24%

 Changing the thresholds:
 CONV= 0.1E-06 0.1E-05 CUTTRF= 0.1E-09 0.1E-08 ITOL= 24 20 ICUT= 12 10

 Acceleration options T F F

 Bond       1 :  4 caps added,    6 atoms total. Charge  0 , multiplicity 0 .
     852  14.00000   -21.17127000    -2.85662000     8.28892000
       9   8.00000   -20.19009000    -1.71346000     7.64354000
       1   1.00000   -21.74071299    -3.69566665     7.21089614
       2   1.00000   -22.24496005    -2.22416194     9.08741016
       8   1.00000   -20.44617587    -3.77053512     9.19963275
     856   1.00000   -19.33751520    -1.34163765     7.40591780


          ********************
          1 ELECTRON INTEGRALS
          ********************
 ...... END OF ONE-ELECTRON INTEGRALS ......
 STEP CPU TIME =     0.02 TOTAL CPU TIME =       6266.2 (    104.4 MIN)
 TOTAL WALL CLOCK TIME=        208.3 SECONDS, CPU UTILIZATION IS  3007.96%

          -------------
          GUESS OPTIONS
          -------------
          GUESS =HUCKEL            NORB  =       0          NORDER=       0
          MIX   =       F          PRTMO =       F          PUNMO =       F
          TOLZ  = 1.0E-08          TOLE  = 1.0E-05
          SYMDEN=       F          PURIFY=       F

 INITIAL GUESS ORBITALS GENERATED BY HUCKEL   ROUTINE.
 HUCKEL GUESS REQUIRES     12246 WORDS.

 SYMMETRIES FOR INITIAL GUESS ORBITALS FOLLOW.   BOTH SET(S).
    13 ORBITALS ARE OCCUPIED (    6 CORE ORBITALS).
     7=A        8=A        9=A       10=A       11=A       12=A       13=A   
    14=A       15=A       16=A       17=A       18=A       19=A       20=A   
    21=A       22=A       23=A   
 ...... END OF INITIAL ORBITAL SELECTION ......
 STEP CPU TIME =     9.29 TOTAL CPU TIME =       6275.5 (    104.6 MIN)
 TOTAL WALL CLOCK TIME=        208.5 SECONDS, CPU UTILIZATION IS  3010.40%

          --------------------
          2 ELECTRON INTEGRALS
          --------------------

 DIRECT SCF METHOD SKIPS INTEGRAL STORAGE ON DISK.
 DIRECT TRANSFORMATION SKIPS AO INTEGRAL STORAGE ON DISK.
  ...... END OF TWO-ELECTRON INTEGRALS .....
 STEP CPU TIME =     0.02 TOTAL CPU TIME =       6275.5 (    104.6 MIN)
 TOTAL WALL CLOCK TIME=        208.5 SECONDS, CPU UTILIZATION IS  3010.40%

          --------------------------
                 RHF SCF CALCULATION
          --------------------------

     NUCLEAR ENERGY =        64.5894825304
     MAXIT =  100     NPUNCH=    0
     EXTRAP=T  DAMP=F  SHIFT=F  RSTRCT=F  DIIS=F  DEM=F  SOSCF=T
     DENSITY MATRIX CONV=  2.00E-06
     SOSCF WILL OPTIMIZE     221 ORBITAL ROTATIONS, SOGTOL=   0.250
     MEMORY REQUIRED FOR RHF ITERS=     52200 WORDS.

 DIRECT SCF CALCULATION, SCHWRZ=T   FDIFF=T,  DIRTHR=  0.00E+00 NITDIR=10
 SCHWARZ INEQUALITY OVERHEAD:      2690 INTEGRALS, T=        2.92

                                                                                   NONZERO     BLOCKS
 ITER EX DEM     TOTAL ENERGY        E CHANGE  DENSITY CHANGE     ORB. GRAD      INTEGRALS    SKIPPED
   1  0  0     -365.7079588935  -365.7079588935   0.284031367   0.000000000         103390        210
          ---------------START SECOND ORDER SCF---------------
   2  1  0     -366.0176401059    -0.3096812124   0.069761395   0.042835017         103326        251
   3  2  0     -366.0344350538    -0.0167949479   0.038757976   0.018290200         103084        318
   4  3  0     -366.0364192857    -0.0019842319   0.007843870   0.007314052         102997        357
   5  4  0     -366.0366795041    -0.0002602184   0.001317105   0.000871047         102620        475
   6  5  0     -366.0366897869    -0.0000102828   0.000658102   0.000251263         101915        635
   7  6  0     -366.0366909999    -0.0000012130   0.000113576   0.000041638         101284        791
   8  7  0     -366.0366910296    -0.0000000297   0.000068998   0.000017453          99295       1083
   9  8  0     -366.0366910363    -0.0000000067   0.000007313   0.000002981          98938       1134
  10  9  0     -366.0366910363     0.0000000000   0.000003805   0.000000743          96072       1527
  11 10  0     -366.0366910362     0.0000000001   0.000000479   0.000000140          93705       1740

          -----------------
          DENSITY CONVERGED
          -----------------
     TIME TO FORM FOCK OPERATORS=       3.6 SECONDS (       0.3 SEC/ITER)
     FOCK TIME ON FIRST ITERATION=       0.6, LAST ITERATION=       0.3
     TIME TO SOLVE SCF EQUATIONS=      18.9 SECONDS (       1.7 SEC/ITER)

 FINAL RHF ENERGY IS     -366.0366910362 AFTER  11 ITERATIONS

          ------------
          EIGENVECTORS
          ------------

                      1          2          3          4          5
                  -68.8358   -20.5389    -6.1912    -4.2974    -4.2963
                     A          A          A          A          A   
    1  SI 1  S    0.997185   0.000008  -0.268130   0.001158   0.000025
    2  SI 1  S    0.010922   0.000021   1.030170  -0.004566  -0.000119
    3  SI 1  X    0.000051  -0.000009   0.002436   0.583768   0.805866
    4  SI 1  Y    0.000062   0.000015   0.002869   0.700053  -0.509044
    5  SI 1  Z   -0.000034  -0.000007  -0.001519  -0.398514   0.286342
    6  SI 1  S   -0.003468   0.000546   0.010464   0.001070  -0.000076
    7  SI 1  X   -0.000328   0.000596   0.000344   0.011477   0.014550
    8  SI 1  Y   -0.000399   0.000514   0.000330   0.013546  -0.009345
    9  SI 1  Z    0.000225  -0.000299  -0.000179  -0.007715   0.005241
   10  SI 1  S    0.001122   0.002372  -0.002085  -0.001737  -0.000071
   11  SI 1  X    0.000112   0.000280  -0.000235  -0.003058  -0.003013
   12  SI 1  Y    0.000114   0.000318  -0.000246  -0.003406   0.001776
   13  SI 1  Z   -0.000067  -0.000176   0.000138   0.001933  -0.001035
   14  O  2  S   -0.000017   0.995735  -0.000326  -0.001210  -0.000017
   15  O  2  S   -0.000134   0.022236   0.000559   0.001974   0.000098
   16  O  2  X    0.000002   0.000629  -0.000418  -0.001440   0.000380
   17  O  2  Y    0.000002  -0.000544  -0.000568  -0.001935  -0.000235
   18  O  2  Z   -0.000002   0.000257   0.000318   0.001077   0.000129
   19  O  2  S    0.000577  -0.007897  -0.000226  -0.000761  -0.000275
   20  O  2  X   -0.000517  -0.000158  -0.000133  -0.000776  -0.000871
   21  O  2  Y   -0.000531   0.000696  -0.000024  -0.000281  -0.000001
   22  O  2  Z    0.000304  -0.000359   0.000018   0.000198   0.000023
   23  H  3  S    0.000218   0.000036   0.000429  -0.000393  -0.000243
   24  H  3  S    0.000088  -0.000694  -0.000164   0.000514   0.000190
   25  H  4  S    0.000217   0.000056   0.000434  -0.000381  -0.000699
   26  H  4  S    0.000095  -0.000693  -0.000171   0.000473   0.000617
   27  H  5  S    0.000210   0.000022   0.000423  -0.000477   0.000945
   28  H  5  S    0.000084  -0.000721  -0.000164   0.000647  -0.000836
   29  H  6  S    0.000199  -0.000143   0.000051   0.000223   0.000248
   30  H  6  S   -0.000041   0.001424   0.000355   0.001872   0.000499

                      6          7          8          9         10
                   -4.2963    -1.3183    -0.7893    -0.6409    -0.5463
                     A          A          A          A          A   
    1  SI 1  S    0.000028   0.012637   0.044024   0.028193   0.000197
    2  SI 1  S   -0.000108  -0.064272  -0.215263  -0.130805  -0.000579
    3  SI 1  X    0.002424  -0.030656  -0.015600   0.055413   0.017613
    4  SI 1  Y    0.490843  -0.033659  -0.022152   0.091988  -0.064790
    5  SI 1  Z    0.865799   0.019079   0.012222  -0.051609  -0.107597
    6  SI 1  S    0.000031   0.089524   0.445612   0.340699   0.004340
    7  SI 1  X    0.000043   0.033594   0.017895  -0.108173  -0.042323
    8  SI 1  Y    0.008917   0.035882   0.024019  -0.185204   0.164528
    9  SI 1  Z    0.015685  -0.020381  -0.013108   0.104026   0.267047
   10  SI 1  S    0.000002  -0.030726   0.011779   0.087504   0.005300
   11  SI 1  X   -0.000052  -0.013978  -0.010745   0.019861  -0.005160
   12  SI 1  Y   -0.001733  -0.014575  -0.013167   0.007311   0.028943
   13  SI 1  Z   -0.003060   0.008215   0.007442  -0.005691   0.041327
   14  O  2  S   -0.000004  -0.218024   0.008453   0.036990  -0.002831
   15  O  2  S    0.000001   0.468906  -0.024648  -0.067403   0.008241
   16  O  2  X   -0.000006   0.036402  -0.297427   0.306848  -0.023813
   17  O  2  Y    0.000218  -0.024649  -0.214051   0.117306   0.274869
   18  O  2  Z    0.000399   0.010946   0.126476  -0.075921   0.374211
   19  O  2  S    0.000012   0.514579  -0.014084  -0.175085   0.007739
   20  O  2  X    0.000030  -0.006635  -0.178659   0.241356  -0.016931
   21  O  2  Y   -0.000248  -0.037749  -0.127339   0.102838   0.213085
   22  O  2  Z   -0.000467   0.020138   0.075325  -0.065433   0.288535
   23  H  3  S   -0.000995   0.005759   0.086458   0.125223  -0.138661
   24  H  3  S    0.000908   0.006505   0.070294   0.114653  -0.138616
   25  H  4  S    0.000745   0.005714   0.087973   0.118291   0.128314
   26  H  4  S   -0.000713   0.006505   0.071507   0.111808   0.125580
   27  H  5  S    0.000248   0.005500   0.083852   0.148590   0.023988
   28  H  5  S   -0.000220   0.007067   0.067641   0.133898   0.024848
   29  H  6  S   -0.000019   0.142081  -0.204688   0.163628  -0.000724
   30  H  6  S   -0.000007   0.014571  -0.051670   0.043122  -0.001352

                     11         12         13         14         15
                   -0.5408    -0.4466    -0.4440     0.1334     0.2024
                     A          A          A          A          A   
    1  SI 1  S    0.001695   0.001710   0.000943  -0.012892  -0.010074
    2  SI 1  S   -0.005615  -0.008160  -0.004402   0.058443   0.025822
    3  SI 1  X    0.118928   0.071074   0.034578   0.050135  -0.029356
[...]
   31   28 S1  0   2.61  0.0000 -14102.417345653 -14102.417345653   0.01309231   0.01309231  0.00000000    0.000    8.216
   31   29 S1  0   1.27  0.0000 -14177.856122774 -14177.856122774   0.03821496   0.03821496  0.00000000    0.000   23.980
   31   30 C1  0   0.00  0.0000 -14464.932621341 -14454.693380147-352.24974018-352.08315999  0.03399447    0.000    0.000
   32    1 C1  0   0.00  0.0000 -12585.015415798 -12575.987490161-351.20514156-350.98421428  0.02370649    0.000    0.000
   32    2 S1  0   1.04  0.0000  -6059.578492179  -6059.578492179   0.00900882   0.00900882  0.00000000    0.000    5.653
   32    3 S1  0   1.29  0.0000 -11129.433371210 -11129.433371210   0.02379810   0.02379810  0.00000000    0.000   14.934
   32    4 S1  0   2.41  0.0000 -11927.633754338 -11927.633754338  -0.00640436  -0.00640436  0.00000000    0.000   -4.019
   32    5 S1  0   3.90  0.0000 -12148.828283418 -12148.828283418   0.00279534   0.00279534  0.00000000    0.000    1.754
   32    6 S1  0   4.48  0.0000 -12072.863269794 -12072.863269794   0.00153979   0.00153979  0.00000000    0.000    0.966
   32    7 S1  0   5.40  0.0000 -12148.408523890 -12148.408523890   0.00035796   0.00035796  0.00000000    0.000    0.225
   32    8 S1  0   6.53  0.0000 -12072.983246214 -12072.983246214  -0.00053678  -0.00053678  0.00000000    0.000   -0.337
   32    9 S1  0   8.27  0.0000 -12149.930241645 -12149.930241645  -0.00021058  -0.00021058  0.00000000    0.000   -0.132
   32   10 S1  0   7.91  0.0000 -12941.186903442 -12941.186903442  -0.00055771  -0.00055771  0.00000000    0.000   -0.350
   32   11 S1  0   7.40  0.0000 -12148.879825743 -12148.879825743   0.00047345   0.00047345  0.00000000    0.000    0.297
   32   12 S1  0   7.60  0.0000 -12073.254069768 -12073.254069768  -0.00040173  -0.00040173  0.00000000    0.000   -0.252
   32   13 S1  0   7.33  0.0000 -12073.034551556 -12073.034551556   0.00055132   0.00055132  0.00000000    0.000    0.346
   32   14 S1  0   6.87  0.0000  -6059.584485433  -6059.584485433   0.00004886   0.00004886  0.00000000    0.000    0.031
   32   15 S1  0   8.31  0.0000 -13617.109147645 -13617.109147645   0.00001654   0.00001654  0.00000000    0.000    0.010
   32   16 S1  0   8.45  0.0000 -12301.203503956 -12301.203503956   0.00027552   0.00027552  0.00000000    0.000    0.173
   32   17 S1  0   8.40  0.0000 -12176.485479116 -12176.485479116   0.00004005   0.00004005  0.00000000    0.000    0.025
   32   18 S1  0   7.18  0.0000  -6073.149379619  -6073.149379619  -0.00010200  -0.00010200  0.00000000    0.000   -0.064
   32   19 S1  0   7.69  0.0000 -11352.546143333 -11352.546143333   0.00040378   0.00040378  0.00000000    0.000    0.253
   32   20 S1  0   6.69  0.0000  -6059.582386397  -6059.582386397   0.00004051   0.00004051  0.00000000    0.000    0.025
   32   21 S1  0   8.79  0.0000 -10738.974320906 -10738.974320906  -0.00014038  -0.00014038  0.00000000    0.000   -0.088
   32   22 S1  0   8.07  0.0000 -11574.887922950 -11574.887922950   0.00016185   0.00016185  0.00000000    0.000    0.102
   32   23 S1  0   6.79  0.0000 -12147.761586174 -12147.761586174  -0.00007363  -0.00007363  0.00000000    0.000   -0.046
   32   24 S1  0   6.50  0.0000 -12071.549812998 -12071.549812998  -0.00039428  -0.00039428  0.00000000    0.000   -0.247
   32   25 S1  0   5.56  0.0000 -12148.064719342 -12148.064719342  -0.00089202  -0.00089202  0.00000000    0.000   -0.560
   32   26 S1  0   7.32  0.0000 -12075.441634045 -12075.441634045   0.00121842   0.00121842  0.00000000    0.000    0.765
   32   27 S1  0   5.12  0.0000 -13016.239940415 -13016.239940415   0.00544436   0.00544436  0.00000000    0.000    3.416
   32   28 S1  0   3.34  0.0000 -12071.622039675 -12071.622039675   0.01162281   0.01162281  0.00000000    0.000    7.293
   32   29 S1  0   1.85  0.0000 -12147.055235796 -12147.055235796   0.04232647   0.04232647  0.00000000    0.000   26.560
   32   30 S1  0   1.24  0.0000 -12071.801276714 -12071.801276714   0.01216797   0.01216797  0.00000000    0.000    7.636
   32   31 C1  0   0.00  0.0000 -14194.316738052 -14184.248261108-351.34028174-351.17002949  0.02759375    0.000    0.000

 Total energy of the molecule: Ecorr  (2)=  -185730.973735473

 Total energy of the molecule: Etotpol(2)=       -1.379478782

 Total energy of the molecule: Euncorr(2)=  -185598.546667757

 Total energy of the molecule: Edelta (2)=     -132.427067716

 The backbone energy EBBcorr  (2)=  -185730.836226306

 The backbone energy EBBuncorr(2)=  -185598.409158590
 Dipole moment D(xyz),DA(2)=   22.6764151   -2.9034977    0.1804070   22.8622538

                ONE ELECTRON ENERGY =     -1867035.5318108362
                TWO ELECTRON ENERGY =     -5379624.2234390900
           NUCLEAR REPULSION ENERGY =      7060928.7815144528
                                      -----------------------
                       TOTAL ENERGY =      -185730.9737354733

 ELECTRON-ELECTRON POTENTIAL ENERGY =     -5379624.2234390900
  NUCLEUS-ELECTRON POTENTIAL ENERGY =     -2052581.7485428378
   NUCLEUS-NUCLEUS POTENTIAL ENERGY =      7060928.7815144528
                                      -----------------------
             TOTAL POTENTIAL ENERGY =      -371277.1904674750
               TOTAL KINETIC ENERGY =       185546.2167320016
                 VIRIAL RATIO (V/T) =            2.0009957465

 Done with FMO properties.
 STEP CPU TIME =     2.45 TOTAL CPU TIME =     210584.6 (   3509.7 MIN)
 TOTAL WALL CLOCK TIME=       4961.6 SECONDS, CPU UTILIZATION IS  4244.29%
 STEP CPU TIME =     0.03 TOTAL CPU TIME =     210584.6 (   3509.7 MIN)
 TOTAL WALL CLOCK TIME=       4961.6 SECONDS, CPU UTILIZATION IS  4244.29%

 Total timing statistics in pairs (CPU,wall) for each rank, sec

    Rank   total     SCF    corr     DFT    CPHF     EFP    solv     ESP    geom
 -------------------------------------------------------------------------------
       1  210584.6 190675.3  10450.2      0.0    0.0   0.0    0.0     0.0    0.0
       1    4961.6   2845.8    158.9      0.0    0.0   0.0    0.0     0.0    0.0
       2  302860.6 263572.9  31983.0      0.0    0.0   0.0    0.0     0.0    0.0
       2    4961.6   3998.7    479.2      0.0    0.0   0.0    0.0     0.0    0.0
       3  204465.9 180234.8  15253.5      0.0    0.0   0.0    0.0     0.0    0.0
       3    4961.6   2780.7    229.1      0.0    0.0   0.0    0.0     0.0    0.0
       4  213536.6 185692.5  16866.1      0.0    0.0   0.0    0.0     0.0    0.0
       4    4961.6   2867.7    253.9      0.0    0.0   0.0    0.0     0.0    0.0
       5  272840.1 236012.8  28043.2      0.0    0.0   0.0    0.0     0.0    0.0
       5    4961.6   3605.9    420.5      0.0    0.0   0.0    0.0     0.0    0.0
       6  292282.1 247309.3  30794.9      0.0    0.0   0.0    0.0     0.0    0.0
       6    4961.6   3780.5    461.5      0.0    0.0   0.0    0.0     0.0    0.0
       7  181419.8 154865.2  16267.4      0.0    0.0   0.0    0.0     0.0    0.0
       7    4961.6   2317.1    243.8      0.0    0.0   0.0    0.0     0.0    0.0
       8  275115.4 235755.0  25013.1      0.0    0.0   0.0    0.0     0.0    0.0
       8    4961.6   3561.8    376.3      0.0    0.0   0.0    0.0     0.0    0.0
       9  196648.4 174529.5  13998.8      0.0    0.0   0.0    0.0     0.0    0.0
       9    4961.6   2676.8    210.9      0.0    0.0   0.0    0.0     0.0    0.0
      10  186302.4 170079.0   4891.6      0.0    0.0   0.0    0.0     0.0    0.0
      10    4961.6   2590.8     75.5      0.0    0.0   0.0    0.0     0.0    0.0
      11  212420.9 184897.1  17230.9      0.0    0.0   0.0    0.0     0.0    0.0
      11    4961.6   2840.7    258.3      0.0    0.0   0.0    0.0     0.0    0.0
      12  266414.7 232429.3  28232.4      0.0    0.0   0.0    0.0     0.0    0.0
      12    4961.6   3548.0    423.5      0.0    0.0   0.0    0.0     0.0    0.0
      13  214791.4 187258.1  17114.4      0.0    0.0   0.0    0.0     0.0    0.0
      13    4961.6   2888.7    256.7      0.0    0.0   0.0    0.0     0.0    0.0
      14  287950.6 262763.3  16963.5      0.0    0.0   0.0    0.0     0.0    0.0
      14    4961.6   3989.5    254.9      0.0    0.0   0.0    0.0     0.0    0.0
      15  152990.4 131552.3  11402.3      0.0    0.0   0.0    0.0     0.0    0.0
      15    4961.6   1965.1    171.8      0.0    0.0   0.0    0.0     0.0    0.0
      16  240236.8 223161.8   5055.9      0.0    0.0   0.0    0.0     0.0    0.0
      16    4961.6   3364.3     77.5      0.0    0.0   0.0    0.0     0.0    0.0
      17  175117.3 154338.4   9659.9      0.0    0.0   0.0    0.0     0.0    0.0
      17    4961.6   2387.6    146.5      0.0    0.0   0.0    0.0     0.0    0.0
      18  223532.7 192604.7  17023.3      0.0    0.0   0.0    0.0     0.0    0.0
      18    4961.6   2975.1    255.4      0.0    0.0   0.0    0.0     0.0    0.0
      19  211554.0 183356.7  17321.3      0.0    0.0   0.0    0.0     0.0    0.0
      19    4961.6   2804.1    259.4      0.0    0.0   0.0    0.0     0.0    0.0
      20  251327.0 217439.5  25394.4      0.0    0.0   0.0    0.0     0.0    0.0
      20    4961.6   3332.6    381.5      0.0    0.0   0.0    0.0     0.0    0.0
      21  192087.2 176863.5  12261.4      0.0    0.0   0.0    0.0     0.0    0.0
      21    4961.6   2723.5    185.1      0.0    0.0   0.0    0.0     0.0    0.0
      22  214130.2 187102.8  17088.9      0.0    0.0   0.0    0.0     0.0    0.0
      22    4961.6   2868.2    256.4      0.0    0.0   0.0    0.0     0.0    0.0
      23  228951.8 190618.9  25907.6      0.0    0.0   0.0    0.0     0.0    0.0
      23    4961.6   2860.7    388.6      0.0    0.0   0.0    0.0     0.0    0.0
      24  301045.1 265453.4  34869.5      0.0    0.0   0.0    0.0     0.0    0.0
      24    4961.6   4058.9    521.6      0.0    0.0   0.0    0.0     0.0    0.0
      25  214844.7 194985.3  17364.6      0.0    0.0   0.0    0.0     0.0    0.0
      25    4961.6   2977.3    260.8      0.0    0.0   0.0    0.0     0.0    0.0
      26  287182.6 247907.5  30838.5      0.0    0.0   0.0    0.0     0.0    0.0
      26    4961.6   3788.1    462.1      0.0    0.0   0.0    0.0     0.0    0.0
      27  224587.8 194848.3  21110.7      0.0    0.0   0.0    0.0     0.0    0.0
      27    4961.6   2995.3    317.5      0.0    0.0   0.0    0.0     0.0    0.0
      28  228298.4 200029.0  18956.1      0.0    0.0   0.0    0.0     0.0    0.0
      28    4961.6   3056.3    285.1      0.0    0.0   0.0    0.0     0.0    0.0
      29  232607.6 206449.0  16899.7      0.0    0.0   0.0    0.0     0.0    0.0
      29    4961.6   3163.5    254.0      0.0    0.0   0.0    0.0     0.0    0.0
      30  222482.3 193961.0  17452.0      0.0    0.0   0.0    0.0     0.0    0.0
      30    4961.6   2963.9    262.2      0.0    0.0   0.0    0.0     0.0    0.0
      31  177094.7 150228.3  15952.2      0.0    0.0   0.0    0.3     0.0    0.0
      31    4961.6   2248.6    239.1      0.0    0.0   0.0    0.0     0.0    0.0
      32  267276.4 233491.7  32594.4      0.0    0.0   0.0    0.0     0.0    0.0
      32    4961.6   3597.0    488.0      0.0    0.0   0.0    0.0     0.0    0.0
averaged  230093.2 201577.1  19383.0      0.0    0.0   0.0    0.0     0.0    0.0
averaged    4961.6   3075.7    291.1      0.0    0.0   0.0    0.0     0.0    0.0

  FMO  timing statistics in pairs (CPU,wall) for each rank, sec

    Rank  FMOini FMOscf1  FMOdm1 FMOsyn1 FMOscf2  FMOes2 FMOsyn2 FMOscf3 FMOsyn3
 -------------------------------------------------------------------------------
       1 6253.7   76550.3   12.5    0.0  127113.1       0.5  623.4    0.0    0.0
       1  207.2    1152.5    0.7    0.0    2972.1       0.0  623.5    0.0    0.0
       2 6753.2   63971.2    0.7  150.4  231824.4       0.0  130.1    0.0    0.0
       2  207.2    1013.9    0.7  138.7    3477.0       0.0  118.6    0.0    0.0
       3 6703.0   36730.6    0.7  524.8  159892.0       0.0  583.6    0.0    0.0
       3  207.2     639.6    0.7  512.9    3012.0       0.0  583.6    0.0    0.0
       4 7687.1   36623.4    0.7  521.4  168045.7       1.4  625.8    0.0    0.0
       4  207.2     642.9    0.7  509.7    2969.8       0.0  625.8    0.0    0.0
       5 7801.2   42305.5    0.7  455.1  221968.3       0.0  278.5    0.0    0.0
       5  207.2     709.1    0.7  443.5    3328.5       0.0  267.1    0.0    0.0
       613418.9   42130.2    8.3  456.3  236175.5       0.0   61.9    0.0    0.0
       6  207.2     708.0    0.7  444.5    3545.1       0.0   50.5    0.0    0.0
       7 7479.5     637.2    0.7 1154.9  171489.9       0.2  625.7    0.0    0.0
       7  207.2       9.7    0.7 1142.9    2969.9       0.0  625.8    0.0    0.0
       812937.6   73313.6    0.7   26.5  188390.2       0.1  415.0    0.0    0.0
       8  207.2    1138.0    0.7   14.6    3180.5       0.0  415.1    0.0    0.0
       9 5215.2   45065.9    0.7  415.8  145536.2       0.4  383.8    0.0    0.0
       9  207.2     748.2    0.7  404.4    3211.8       0.0  383.8    0.0    0.0
      10 8405.5   48298.7    0.7  367.1  128595.6       0.2  604.1    0.0    0.0
      10  207.2     797.0    0.7  355.6    2991.5       0.0  604.1    0.0    0.0
      11 7552.4   32380.6    0.7  598.3  171228.8       0.5  628.9    0.0    0.0
      11  207.2     565.8    0.7  586.7    2968.9       0.0  626.6    0.0    0.0
      12 4703.4   43073.0    0.7  449.7  217817.6       0.0  338.7    0.0    0.0
      12  207.2     714.8    0.7  437.7    3268.7       0.0  326.9    0.0    0.0
      13 7900.1   34726.0    0.7  552.0  170957.7       0.3  624.2    0.0    0.0
      13  207.2     611.9    0.7  540.6    2971.4       0.0  624.2    0.0    0.0
      14 7446.1   48046.6    0.7  382.1  231910.7       0.0  132.7    0.0    0.0
      14  207.2     782.4    0.7  370.1    3474.6       0.0  121.0    0.0    0.0
      15 6231.6     854.5    0.7 1151.3  144276.7       0.6  443.9    0.0    0.0
      15  207.2      13.1    0.7 1139.4    3151.7       0.0  443.9    0.0    0.0
      16 8350.8   66598.6    0.7  101.6  164747.0       1.3  405.8    0.0    0.0
      16  207.2    1062.6    0.7   89.9    3189.8       0.0  405.8    0.0    0.0
      17 7358.6   42148.9    0.7  446.1  124511.9       0.6  619.2    0.0    0.0
      17  207.2     718.4    0.7  434.2    2976.4       0.0  619.2    0.0    0.0
      1811244.3   38991.8    0.7  480.0  172428.0       1.3  355.0    0.0    0.0
      18  207.2     684.6    0.7  468.0    3240.6       0.0  355.0    0.0    0.0
      19 7609.3   40883.4    0.7  489.6  162139.3       1.2  399.7    0.0    0.0
      19  207.2     674.6    0.7  478.0    3195.9       0.0  399.7    0.0    0.0
      20 7196.2   40912.1    0.7  471.8  202142.2       0.0  573.4    0.0    0.0
      20  207.2     692.3    0.7  460.2    3033.1       0.0  562.5    0.0    0.0
      21  269.1   41344.9    0.7  460.6  149629.0       0.2  351.1    0.0    0.0
      21  207.2     704.1    0.7  448.5    3244.4       0.0  351.2    0.0    0.0
      22 7238.1   41169.5    0.7  473.6  164843.1       0.4  373.5    0.0    0.0
      22  207.2     690.8    0.7  461.8    3222.1       0.0  373.5    0.0    0.0
      2310751.7     614.4    0.7 1154.8  216034.7       0.0  364.4    0.0    0.0
      23  207.2       9.5    0.7 1143.0    3242.6       0.0  353.0    0.0    0.0
      24  290.2   61157.3    0.7  163.2  239401.2       0.0    0.0    0.0    0.0
      24  207.2    1001.2    0.7  151.4    3595.6       0.0    0.0    0.0    0.0
      25  268.3   43553.6    0.7  439.7  169913.7       0.3  637.7    0.0    0.0
      25  207.2     724.4    0.7  428.2    2969.0       0.0  626.6    0.0    0.0
      26 7664.2   43642.7    0.7  435.0  235332.9       0.0   75.1    0.0    0.0
      26  207.2     729.6    0.7  422.9    3532.3       0.0   63.3    0.0    0.0
      27 6282.7   33593.2    0.7  581.6  183578.0       0.7  519.9    0.0    0.0
      27  207.2     582.7    0.7  569.9    3075.6       0.0  520.0    0.0    0.0
      28 6851.1   63935.8    0.7  131.7  156739.3       0.5  608.4    0.0    0.0
      28  207.2    1032.5    0.7  120.1    2987.2       0.0  608.4    0.0    0.0
      29 7496.8   42872.6    0.8  439.4  181224.1       0.0  542.9    0.0    0.0
      29  207.2     724.8    0.7  427.7    3052.7       0.0  542.9    0.0    0.0
      30 7784.8   44230.9    0.7  431.8  169366.0       1.7  635.2    0.0    0.0
      30  207.2     732.4    0.7  420.2    2968.9       0.0  626.7    0.0    0.0
      31 7615.1     605.6    0.7 1154.8  167250.2       0.5  437.0    0.0    0.0
      31  207.2       9.4    0.7 1143.2    3158.6       0.0  437.0    0.0    0.0
      32  268.6   38029.0    0.7  495.7  228272.8       0.0  178.9    0.0    0.0
      32  207.2     668.4    0.7  484.1    3427.9       0.0  167.7    0.0    0.0
averaged 6907.1   40906.0    1.3  486.2  181336.7       0.4  424.3    0.0    0.0
averaged  207.2     677.8    0.7  474.8    3175.2       0.0  420.4    0.0    0.0

 In-memory F10 used 11802378 words out of  500000000 allocated on rank         0
             776791266  WORDS OF DYNAMIC MEMORY USED
 EXECUTION OF GAMESS TERMINATED NORMALLY Wed Mar  6 05:52:52 2019

          This is a threaded run. In some cases not all
          threaded components in GAMESS will saturate the
          total number of available threads on your system or
          set by OMP_NUM_THREADS

 DDI: 263640 bytes (0.3 MB / 0 MWords) used by master data server.

 ----------------------------------------
 CPU timing information for all processes
 ========================================
 0: 174234.428 + 36362.324 = 210596.752
 1: 252628.640 + 50244.392 = 302873.32
 2: 169745.548 + 34732.984 = 204478.532
 3: 177500.528 + 36048.180 = 213548.708
 4: 227423.812 + 45428.456 = 272852.268
 5: 244769.688 + 47524.700 = 292294.388
 6: 151053.236 + 30376.884 = 181430.120
 7: 229081.832 + 46046.196 = 275128.28
 8: 163333.592 + 33326.724 = 196660.316
 9: 152863.664 + 33450.976 = 186314.640
 10: 175782.784 + 36650.268 = 212433.52
 11: 222840.352 + 43586.776 = 266427.128
 12: 178862.360 + 35938.804 = 214801.164
 13: 237273.624 + 50689.460 = 287963.84
 14: 126734.956 + 26267.596 = 153002.552
 15: 197392.976 + 42856.12 = 240248.988
 16: 144960.140 + 30169.500 = 175129.640
 17: 185702.948 + 37840.300 = 223543.248
 18: 174916.196 + 36649.876 = 211566.72
 19: 209922.40 + 41417.180 = 251339.220
 20: 159051.56 + 33046.328 = 192097.384
 21: 178030.948 + 36109.232 = 214140.180
 22: 192094.508 + 36867.504 = 228962.12
 23: 251619.920 + 49435.612 = 301055.532
 24: 178569.984 + 36284.584 = 214854.568
 25: 239503.120 + 47692.128 = 287195.248
 26: 187097.692 + 37502.344 = 224600.36
 27: 189109.860 + 39200.808 = 228310.668
 28: 192805.84 + 39812.728 = 232617.812
 29: 184597.660 + 37896.876 = 222494.536
 30: 147362.628 + 29742.172 = 177104.800
 31: 223275.408 + 44010.784 = 267286.192
 32: 4920.500 + 45.472 = 4965.972
 33: 4894.568 + 71.948 = 4966.516
 34: 4917.712 + 48.412 = 4966.124
 35: 4897.856 + 68.732 = 4966.588
 36: 4915.152 + 50.952 = 4966.104
 37: 4895.220 + 71.416 = 4966.636
 38: 4918.568 + 48.124 = 4966.692
 39: 4896.772 + 69.164 = 4965.936
 40: 4919.236 + 47.296 = 4966.532
 41: 4881.236 + 85.380 = 4966.616
 42: 4919.76 + 47.284 = 4966.360
 43: 4886.524 + 79.784 = 4966.308
 44: 4918.08 + 48.808 = 4966.816
 45: 4895.588 + 70.504 = 4966.92
 46: 4918.740 + 47.336 = 4966.76
 47: 4904.788 + 61.708 = 4966.496
 48: 4918.596 + 47.880 = 4966.476
 49: 4900.580 + 66.516 = 4967.96
 50: 4918.216 + 48.168 = 4966.384
 51: 4885.28 + 81.456 = 4966.484
 52: 4919.500 + 46.892 = 4966.392
 53: 4898.376 + 68.20 = 4966.396
 54: 4913.616 + 53.184 = 4966.800
 55: 4893.608 + 72.936 = 4966.544
 56: 4919.76 + 47.468 = 4966.544
 57: 4893.376 + 72.436 = 4965.812
 58: 4916.588 + 49.456 = 4966.44
 59: 4822.872 + 143.716 = 4966.588
 60: 4918.16 + 48.740 = 4966.756
 61: 4885.920 + 80.88 = 4966.08
 62: 4917.464 + 49.576 = 4967.40
 63: 4893.392 + 73.172 = 4966.564
 ----------------------------------------
unset echo
cp: No match.
rm: No match.
Wed Mar  6 05:52:56 PST 2019
4.544u 6.396s 1:22:57.34 0.2%	0+0k 684+10016io 3pf+0w
